
     Program BANDS v.7.1 starts on 24Apr2025 at 12:15:28 

     This program is part of the open-source Quantum ESPRESSO suite
     for quantum simulation of materials; please cite
         "P. Giannozzi et al., J. Phys.:Condens. Matter 21 395502 (2009);
         "P. Giannozzi et al., J. Phys.:Condens. Matter 29 465901 (2017);
         "P. Giannozzi et al., J. Chem. Phys. 152 154105 (2020);
          URL http://www.quantum-espresso.org", 
     in publications or presentations arising from this work. More details at
     http://www.quantum-espresso.org/quote

     Parallel version (MPI & OpenMP), running on      12 processor cores
     Number of MPI processes:                12
     Threads/MPI process:                     1

     MPI processes distributed on     1 nodes
     R & G space division:  proc/nbgrp/npool/nimage =      12
     463077 MiB available memory on the printing compute node when the environment starts


     Reading xml data from directory:

     ./Si.save/

     IMPORTANT: XC functional enforced from input :
     Exchange-correlation= PBE
                           (   1   4   3   4   0   0   0)
     Any further DFT definition will be discarded
     Please, verify this is what you really want


     Parallelization info
     --------------------
     sticks:   dense  smooth     PW     G-vecs:    dense   smooth      PW
     Min          49      49     15                  797      797     135
     Max          50      50     16                  799      799     137
     Sum         595     595    187                 9577     9577    1639

     Using Slab Decomposition

     Reading collected, re-writing distributed wavefunctions
     high-symmetry point: -1.0000 0.5000 0.0000   x coordinate   0.0000
     high-symmetry point:  0.0000 0.0000 0.0000   x coordinate   1.1180
     high-symmetry point: -1.0000 0.0000 0.0000   x coordinate   2.1180
     high-symmetry point: -1.0000 0.5000 0.0000   x coordinate   2.6180
     high-symmetry point: -0.5000 0.5000 0.5000   x coordinate   3.3251
     high-symmetry point:  0.0000 0.0000 0.0000   x coordinate   4.1912

     Plottable bands (eV) written to file Si.dat.gnu
     Bands written to file Si.dat

 **************************************************************************

                    xk=(  -1.00000,   0.50000,   0.00000  )

     zone border point and non-symmorphic group 
     symmetry decomposition not available

 **************************************************************************

 **************************************************************************

                    xk=(  -0.95000,   0.47500,  -0.00000  )

     point group C_s (m)    
     there are  2 classes
     the character table:

       E     s    
A'     1.00  1.00
A''    1.00 -1.00

     the symmetry operations in each class and the name of the first element:

     E        1
                                                                 
     s        2
                                                                 

     Band symmetry, C_s (m)     point group:

     e(  1 -  1) =     -1.99324  eV     1   --> A'             
     e(  2 -  2) =     -1.51836  eV     1   --> A''            
     e(  3 -  3) =      1.97545  eV     1   --> A'             
     e(  4 -  4) =      2.28289  eV     1   --> A''            

 **************************************************************************

 **************************************************************************

                    xk=(  -0.90000,   0.45000,   0.00000  )

     Band symmetry, C_s (m)     point group:

     e(  1 -  1) =     -2.26427  eV     1   --> A'             
     e(  2 -  2) =     -1.26285  eV     1   --> A''            
     e(  3 -  3) =      1.91387  eV     1   --> A'             
     e(  4 -  4) =      2.48037  eV     1   --> A''            

 **************************************************************************

 **************************************************************************

                    xk=(  -0.85000,   0.42500,   0.00000  )

     Band symmetry, C_s (m)     point group:

     e(  1 -  1) =     -2.55805  eV     1   --> A'             
     e(  2 -  2) =     -0.98614  eV     1   --> A''            
     e(  3 -  3) =      1.91686  eV     1   --> A'             
     e(  4 -  4) =      2.69609  eV     1   --> A''            

 **************************************************************************

 **************************************************************************

                    xk=(  -0.80000,   0.40000,   0.00000  )

     Band symmetry, C_s (m)     point group:

     e(  1 -  1) =     -2.86565  eV     1   --> A'             
     e(  2 -  2) =     -0.68830  eV     1   --> A''            
     e(  3 -  3) =      1.97745  eV     1   --> A'             
     e(  4 -  4) =      2.92709  eV     1   --> A''            

 **************************************************************************

 **************************************************************************

                    xk=(  -0.75000,   0.37500,   0.00000  )

     Band symmetry, C_s (m)     point group:

     e(  1 -  1) =     -3.17860  eV     1   --> A'             
     e(  2 -  2) =     -0.36941  eV     1   --> A''            
     e(  3 -  3) =      2.08829  eV     1   --> A'             
     e(  4 -  4) =      3.16988  eV     1   --> A''            

 **************************************************************************

 **************************************************************************

                    xk=(  -0.70000,   0.35000,   0.00000  )

     Band symmetry, C_s (m)     point group:

     e(  1 -  1) =     -3.48963  eV     1   --> A'             
     e(  2 -  2) =     -0.02956  eV     1   --> A''            
     e(  3 -  3) =      2.24263  eV     1   --> A'             
     e(  4 -  4) =      3.42046  eV     1   --> A''            

 **************************************************************************

 **************************************************************************

                    xk=(  -0.65000,   0.32500,  -0.00000  )

     Band symmetry, C_s (m)     point group:

     e(  1 -  1) =     -3.79296  eV     1   --> A'             
     e(  2 -  2) =      0.33108  eV     1   --> A''            
     e(  3 -  3) =      2.43466  eV     1   --> A'             
     e(  4 -  4) =      3.67446  eV     1   --> A''            

 **************************************************************************

 **************************************************************************

                    xk=(  -0.60000,   0.30000,   0.00000  )

     Band symmetry, C_s (m)     point group:

     e(  1 -  1) =     -4.08406  eV     1   --> A'             
     e(  2 -  2) =      0.71234  eV     1   --> A''            
     e(  3 -  3) =      2.65935  eV     1   --> A'             
     e(  4 -  4) =      3.92736  eV     1   --> A''            

 **************************************************************************

 **************************************************************************

                    xk=(  -0.55000,   0.27500,   0.00000  )

     Band symmetry, C_s (m)     point group:

     e(  1 -  1) =     -4.35949  eV     1   --> A'             
     e(  2 -  2) =      1.11386  eV     1   --> A''            
     e(  3 -  3) =      2.91223  eV     1   --> A'             
     e(  4 -  4) =      4.17470  eV     1   --> A''            

 **************************************************************************

 **************************************************************************

                    xk=(  -0.50000,   0.25000,   0.00000  )

     Band symmetry, C_s (m)     point group:

     e(  1 -  1) =     -4.61662  eV     1   --> A'             
     e(  2 -  2) =      1.53515  eV     1   --> A''            
     e(  3 -  3) =      3.18910  eV     1   --> A'             
     e(  4 -  4) =      4.41250  eV     1   --> A''            

 **************************************************************************

 **************************************************************************

                    xk=(  -0.45000,   0.22500,   0.00000  )

     Band symmetry, C_s (m)     point group:

     e(  1 -  1) =     -4.85341  eV     1   --> A'             
     e(  2 -  2) =      1.97551  eV     1   --> A''            
     e(  3 -  3) =      3.48576  eV     1   --> A'             
     e(  4 -  4) =      4.63762  eV     1   --> A''            

 **************************************************************************

 **************************************************************************

                    xk=(  -0.40000,   0.20000,   0.00000  )

     Band symmetry, C_s (m)     point group:

     e(  1 -  1) =     -5.06829  eV     1   --> A'             
     e(  2 -  2) =      2.43383  eV     1   --> A''            
     e(  3 -  3) =      3.79766  eV     1   --> A'             
     e(  4 -  4) =      4.84781  eV     1   --> A''            

 **************************************************************************

 **************************************************************************

                    xk=(  -0.35000,   0.17500,   0.00000  )

     Band symmetry, C_s (m)     point group:

     e(  1 -  1) =     -5.26009  eV     1   --> A'             
     e(  2 -  2) =      2.90840  eV     1   --> A''            
     e(  3 -  3) =      4.11957  eV     1   --> A'             
     e(  4 -  4) =      5.04164  eV     1   --> A''            

 **************************************************************************

 **************************************************************************

                    xk=(  -0.30000,   0.15000,   0.00000  )

     Band symmetry, C_s (m)     point group:

     e(  1 -  1) =     -5.42785  eV     1   --> A'             
     e(  2 -  2) =      3.39655  eV     1   --> A''            
     e(  3 -  3) =      4.44519  eV     1   --> A'             
     e(  4 -  4) =      5.21819  eV     1   --> A''            

 **************************************************************************

 **************************************************************************

                    xk=(  -0.25000,   0.12500,   0.00000  )

     Band symmetry, C_s (m)     point group:

     e(  1 -  1) =     -5.57085  eV     1   --> A'             
     e(  2 -  2) =      3.89387  eV     1   --> A''            
     e(  3 -  3) =      4.76659  eV     1   --> A'             
     e(  4 -  4) =      5.37645  eV     1   --> A''            

 **************************************************************************

 **************************************************************************

                    xk=(  -0.20000,   0.10000,   0.00000  )

     Band symmetry, C_s (m)     point group:

     e(  1 -  1) =     -5.68853  eV     1   --> A'             
     e(  2 -  2) =      4.39254  eV     1   --> A''            
     e(  3 -  3) =      5.07340  eV     1   --> A'             
     e(  4 -  4) =      5.51461  eV     1   --> A''            

 **************************************************************************

 **************************************************************************

                    xk=(  -0.15000,   0.07500,   0.00000  )

     Band symmetry, C_s (m)     point group:

     e(  1 -  1) =     -5.78046  eV     1   --> A'             
     e(  2 -  2) =      4.87787  eV     1   --> A''            
     e(  3 -  3) =      5.35136  eV     1   --> A'             
     e(  4 -  4) =      5.62974  eV     1   --> A''            

 **************************************************************************

 **************************************************************************

                    xk=(  -0.10000,   0.05000,   0.00000  )

     Band symmetry, C_s (m)     point group:

     e(  1 -  1) =     -5.84634  eV     1   --> A'             
     e(  2 -  2) =      5.32013  eV     1   --> A''            
     e(  3 -  3) =      5.58082  eV     1   --> A'             
     e(  4 -  4) =      5.71751  eV     1   --> A''            

 **************************************************************************

 **************************************************************************

                    xk=(  -0.05000,   0.02500,   0.00000  )

     Band symmetry, C_s (m)     point group:

     e(  1 -  1) =     -5.88595  eV     1   --> A'             
     e(  2 -  2) =      5.65825  eV     1   --> A''            
     e(  3 -  3) =      5.73632  eV     1   --> A'             
     e(  4 -  4) =      5.77301  eV     1   --> A''            

 **************************************************************************

 **************************************************************************

                    xk=(   0.00000,   0.00000,   0.00000  )

     point group O_h (m-3m) 
     there are 10 classes
     the character table:

       E     8C3   3C2   6C4   6C2'  i     8S6   3s_h  6S4   6s_d 
A_1g   1.00  1.00  1.00  1.00  1.00  1.00  1.00  1.00  1.00  1.00
A_2g   1.00  1.00  1.00 -1.00 -1.00  1.00  1.00  1.00 -1.00 -1.00
E_g    2.00 -1.00  2.00  0.00  0.00  2.00 -1.00  2.00  0.00  0.00
T_1g   3.00  0.00 -1.00  1.00 -1.00  3.00  0.00 -1.00  1.00 -1.00
T_2g   3.00  0.00 -1.00 -1.00  1.00  3.00  0.00 -1.00 -1.00  1.00
A_1u   1.00  1.00  1.00  1.00  1.00 -1.00 -1.00 -1.00 -1.00 -1.00
A_2u   1.00  1.00  1.00 -1.00 -1.00 -1.00 -1.00 -1.00  1.00  1.00
E_u    2.00 -1.00  2.00  0.00  0.00 -2.00  1.00 -2.00  0.00  0.00
T_1u   3.00  0.00 -1.00  1.00 -1.00 -3.00  0.00  1.00 -1.00  1.00
T_2u   3.00  0.00 -1.00 -1.00  1.00 -3.00  0.00  1.00  1.00 -1.00

     the symmetry operations in each class and the name of the first element:

     E        1
                                                                 
     8C3     17   19   20   18   24   21   22   23
                                                                 
     3C2      2    4    3
                                                                 
     6C4      7    8   15   16   12   11
                                                                 
     6C2'     5    6   14   13   10    9
                                                                 
     i       25
                                                                 
     8S6     41   43   44   42   48   45   46   47
                                                                 
     3s_h    26   28   27
                                                                 
     6S4     31   32   39   40   36   35
                                                                 
     6s_d    29   30   38   37   34   33
                                                                 

     Band symmetry, O_h (m-3m)  point group:

     e(  1 -  1) =     -5.89916  eV     1   --> A_1g G_1   G_1+
     e(  2 -  4) =      5.79206  eV     3   --> T_2g G_25' G_5+

 **************************************************************************

 **************************************************************************

                    xk=(  -0.05000,   0.00000,   0.00000  )

     point group C_4v (4mm) 
     there are  5 classes
     the character table:

       E     2C4   C2    2s_v  2s_d 
A_1    1.00  1.00  1.00  1.00  1.00
A_2    1.00  1.00  1.00 -1.00 -1.00
B_1    1.00 -1.00  1.00  1.00 -1.00
B_2    1.00 -1.00  1.00 -1.00  1.00
E      2.00  0.00 -2.00  0.00  0.00

     the symmetry operations in each class and the name of the first element:

     E        1
                                                                 
     2C4      3    4
                                                                 
     C2       2
                                                                 
     2s_v     5    6
                                                                 
     2s_d     7    8
                                                                 

     Band symmetry, C_4v (4mm)  point group:

     e(  1 -  1) =     -5.88859  eV     1   --> A_1  G_1 D_1   
     e(  2 -  2) =      5.71162  eV     1   --> B_2  G_4 D_2'  
     e(  3 -  4) =      5.74763  eV     2   --> E    G_5 D_5   

 **************************************************************************

 **************************************************************************

                    xk=(  -0.10000,   0.00000,   0.00000  )

     Band symmetry, C_4v (4mm)  point group:

     e(  1 -  1) =     -5.85688  eV     1   --> A_1  G_1 D_1   
     e(  2 -  2) =      5.49320  eV     1   --> B_2  G_4 D_2'  
     e(  3 -  4) =      5.62534  eV     2   --> E    G_5 D_5   

 **************************************************************************

 **************************************************************************

                    xk=(  -0.15000,   0.00000,   0.00000  )

     Band symmetry, C_4v (4mm)  point group:

     e(  1 -  1) =     -5.80408  eV     1   --> A_1  G_1 D_1   
     e(  2 -  2) =      5.18209  eV     1   --> B_2  G_4 D_2'  
     e(  3 -  4) =      5.44921  eV     2   --> E    G_5 D_5   

 **************************************************************************

 **************************************************************************

                    xk=(  -0.20000,   0.00000,   0.00000  )

     Band symmetry, C_4v (4mm)  point group:

     e(  1 -  1) =     -5.73027  eV     1   --> A_1  G_1 D_1   
     e(  2 -  2) =      4.81581  eV     1   --> B_2  G_4 D_2'  
     e(  3 -  4) =      5.24230  eV     2   --> E    G_5 D_5   

 **************************************************************************

 **************************************************************************

                    xk=(  -0.25000,   0.00000,   0.00000  )

     Band symmetry, C_4v (4mm)  point group:

     e(  1 -  1) =     -5.63555  eV     1   --> A_1  G_1 D_1   
     e(  2 -  2) =      4.41771  eV     1   --> B_2  G_4 D_2'  
     e(  3 -  4) =      5.02121  eV     2   --> E    G_5 D_5   

 **************************************************************************

 **************************************************************************

                    xk=(  -0.30000,   0.00000,   0.00000  )

     Band symmetry, C_4v (4mm)  point group:

     e(  1 -  1) =     -5.52004  eV     1   --> A_1  G_1 D_1   
     e(  2 -  2) =      4.00120  eV     1   --> B_2  G_4 D_2'  
     e(  3 -  4) =      4.79692  eV     2   --> E    G_5 D_5   

 **************************************************************************

 **************************************************************************

                    xk=(  -0.35000,   0.00000,   0.00000  )

     Band symmetry, C_4v (4mm)  point group:

     e(  1 -  1) =     -5.38395  eV     1   --> A_1  G_1 D_1   
     e(  2 -  2) =      3.57390  eV     1   --> B_2  G_4 D_2'  
     e(  3 -  4) =      4.57636  eV     2   --> E    G_5 D_5   

 **************************************************************************

 **************************************************************************

                    xk=(  -0.40000,   0.00000,   0.00000  )

     Band symmetry, C_4v (4mm)  point group:

     e(  1 -  1) =     -5.22747  eV     1   --> A_1  G_1 D_1   
     e(  2 -  2) =      3.14042  eV     1   --> B_2  G_4 D_2'  
     e(  3 -  4) =      4.36405  eV     2   --> E    G_5 D_5   

 **************************************************************************

 **************************************************************************

                    xk=(  -0.45000,   0.00000,   0.00000  )

     Band symmetry, C_4v (4mm)  point group:

     e(  1 -  1) =     -5.05082  eV     1   --> A_1  G_1 D_1   
     e(  2 -  2) =      2.70357  eV     1   --> B_2  G_4 D_2'  
     e(  3 -  4) =      4.16312  eV     2   --> E    G_5 D_5   

 **************************************************************************

 **************************************************************************

                    xk=(  -0.50000,   0.00000,   0.00000  )

     Band symmetry, C_4v (4mm)  point group:

     e(  1 -  1) =     -4.85434  eV     1   --> A_1  G_1 D_1   
     e(  2 -  2) =      2.26533  eV     1   --> B_2  G_4 D_2'  
     e(  3 -  4) =      3.97559  eV     2   --> E    G_5 D_5   

 **************************************************************************

 **************************************************************************

                    xk=(  -0.55000,   0.00000,   0.00000  )

     Band symmetry, C_4v (4mm)  point group:

     e(  1 -  1) =     -4.63833  eV     1   --> A_1  G_1 D_1   
     e(  2 -  2) =      1.82722  eV     1   --> B_2  G_4 D_2'  
     e(  3 -  4) =      3.80303  eV     2   --> E    G_5 D_5   

 **************************************************************************

 **************************************************************************

                    xk=(  -0.60000,   0.00000,   0.00000  )

     Band symmetry, C_4v (4mm)  point group:

     e(  1 -  1) =     -4.40319  eV     1   --> A_1  G_1 D_1   
     e(  2 -  2) =      1.39051  eV     1   --> B_2  G_4 D_2'  
     e(  3 -  4) =      3.64658  eV     2   --> E    G_5 D_5   

 **************************************************************************

 **************************************************************************

                    xk=(  -0.65000,   0.00000,   0.00000  )

     Band symmetry, C_4v (4mm)  point group:

     e(  1 -  1) =     -4.14934  eV     1   --> A_1  G_1 D_1   
     e(  2 -  2) =      0.95652  eV     1   --> B_2  G_4 D_2'  
     e(  3 -  4) =      3.50706  eV     2   --> E    G_5 D_5   

 **************************************************************************

 **************************************************************************

                    xk=(  -0.70000,   0.00000,   0.00000  )

     Band symmetry, C_4v (4mm)  point group:

     e(  1 -  1) =     -3.87728  eV     1   --> A_1  G_1 D_1   
     e(  2 -  2) =      0.52648  eV     1   --> B_2  G_4 D_2'  
     e(  3 -  4) =      3.38512  eV     2   --> E    G_5 D_5   

 **************************************************************************

 **************************************************************************

                    xk=(  -0.75000,   0.00000,   0.00000  )

     Band symmetry, C_4v (4mm)  point group:

     e(  1 -  1) =     -3.58758  eV     1   --> A_1  G_1 D_1   
     e(  2 -  2) =      0.10165  eV     1   --> B_2  G_4 D_2'  
     e(  3 -  4) =      3.28126  eV     2   --> E    G_5 D_5   

 **************************************************************************

 **************************************************************************

                    xk=(  -0.80000,   0.00000,   0.00000  )

     Band symmetry, C_4v (4mm)  point group:

     e(  1 -  1) =     -3.28086  eV     1   --> A_1  G_1 D_1   
     e(  2 -  2) =     -0.31668  eV     1   --> B_2  G_4 D_2'  
     e(  3 -  4) =      3.19581  eV     2   --> E    G_5 D_5   

 **************************************************************************

 **************************************************************************

                    xk=(  -0.85000,   0.00000,   0.00000  )

     Band symmetry, C_4v (4mm)  point group:

     e(  1 -  1) =     -2.95784  eV     1   --> A_1  G_1 D_1   
     e(  2 -  2) =     -0.72719  eV     1   --> B_2  G_4 D_2'  
     e(  3 -  4) =      3.12909  eV     2   --> E    G_5 D_5   

 **************************************************************************

 **************************************************************************

                    xk=(  -0.90000,   0.00000,   0.00000  )

     Band symmetry, C_4v (4mm)  point group:

     e(  1 -  1) =     -2.61928  eV     1   --> A_1  G_1 D_1   
     e(  2 -  2) =     -1.12858  eV     1   --> B_2  G_4 D_2'  
     e(  3 -  4) =      3.08130  eV     2   --> E    G_5 D_5   

 **************************************************************************

 **************************************************************************

                    xk=(  -0.95000,   0.00000,   0.00000  )

     Band symmetry, C_4v (4mm)  point group:

     e(  1 -  1) =     -2.26611  eV     1   --> A_1  G_1 D_1   
     e(  2 -  2) =     -1.51969  eV     1   --> B_2  G_4 D_2'  
     e(  3 -  4) =      3.05256  eV     2   --> E    G_5 D_5   

 **************************************************************************

 **************************************************************************

                    xk=(  -1.00000,   0.00000,   0.00000  )

     zone border point and non-symmorphic group 
     symmetry decomposition not available

 **************************************************************************

 **************************************************************************

                    xk=(  -1.00000,   0.02500,   0.00000  )

     zone border point and non-symmorphic group 
     symmetry decomposition not available

 **************************************************************************

 **************************************************************************

                    xk=(  -1.00000,   0.05000,   0.00000  )

     zone border point and non-symmorphic group 
     symmetry decomposition not available

 **************************************************************************

 **************************************************************************

                    xk=(  -1.00000,   0.07500,   0.00000  )

     zone border point and non-symmorphic group 
     symmetry decomposition not available

 **************************************************************************

 **************************************************************************

                    xk=(  -1.00000,   0.10000,   0.00000  )

     zone border point and non-symmorphic group 
     symmetry decomposition not available

 **************************************************************************

 **************************************************************************

                    xk=(  -1.00000,   0.12500,   0.00000  )

     zone border point and non-symmorphic group 
     symmetry decomposition not available

 **************************************************************************

 **************************************************************************

                    xk=(  -1.00000,   0.15000,   0.00000  )

     zone border point and non-symmorphic group 
     symmetry decomposition not available

 **************************************************************************

 **************************************************************************

                    xk=(  -1.00000,   0.17500,   0.00000  )

     zone border point and non-symmorphic group 
     symmetry decomposition not available

 **************************************************************************

 **************************************************************************

                    xk=(  -1.00000,   0.20000,   0.00000  )

     zone border point and non-symmorphic group 
     symmetry decomposition not available

 **************************************************************************

 **************************************************************************

                    xk=(  -1.00000,   0.22500,   0.00000  )

     zone border point and non-symmorphic group 
     symmetry decomposition not available

 **************************************************************************

 **************************************************************************

                    xk=(  -1.00000,   0.25000,   0.00000  )

     zone border point and non-symmorphic group 
     symmetry decomposition not available

 **************************************************************************

 **************************************************************************

                    xk=(  -1.00000,   0.27500,   0.00000  )

     zone border point and non-symmorphic group 
     symmetry decomposition not available

 **************************************************************************

 **************************************************************************

                    xk=(  -1.00000,   0.30000,   0.00000  )

     zone border point and non-symmorphic group 
     symmetry decomposition not available

 **************************************************************************

 **************************************************************************

                    xk=(  -1.00000,   0.32500,   0.00000  )

     zone border point and non-symmorphic group 
     symmetry decomposition not available

 **************************************************************************

 **************************************************************************

                    xk=(  -1.00000,   0.35000,   0.00000  )

     zone border point and non-symmorphic group 
     symmetry decomposition not available

 **************************************************************************

 **************************************************************************

                    xk=(  -1.00000,   0.37500,   0.00000  )

     zone border point and non-symmorphic group 
     symmetry decomposition not available

 **************************************************************************

 **************************************************************************

                    xk=(  -1.00000,   0.40000,   0.00000  )

     zone border point and non-symmorphic group 
     symmetry decomposition not available

 **************************************************************************

 **************************************************************************

                    xk=(  -1.00000,   0.42500,   0.00000  )

     zone border point and non-symmorphic group 
     symmetry decomposition not available

 **************************************************************************

 **************************************************************************

                    xk=(  -1.00000,   0.45000,   0.00000  )

     zone border point and non-symmorphic group 
     symmetry decomposition not available

 **************************************************************************

 **************************************************************************

                    xk=(  -1.00000,   0.47500,   0.00000  )

     zone border point and non-symmorphic group 
     symmetry decomposition not available

 **************************************************************************

 **************************************************************************

                    xk=(  -1.00000,   0.50000,   0.00000  )

     zone border point and non-symmorphic group 
     symmetry decomposition not available

 **************************************************************************

 **************************************************************************

                    xk=(  -0.97500,   0.50000,   0.02500  )

     zone border point and non-symmorphic group 
     symmetry decomposition not available

 **************************************************************************

 **************************************************************************

                    xk=(  -0.95000,   0.50000,   0.05000  )

     zone border point and non-symmorphic group 
     symmetry decomposition not available

 **************************************************************************

 **************************************************************************

                    xk=(  -0.92500,   0.50000,   0.07500  )

     zone border point and non-symmorphic group 
     symmetry decomposition not available

 **************************************************************************

 **************************************************************************

                    xk=(  -0.90000,   0.50000,   0.10000  )

     zone border point and non-symmorphic group 
     symmetry decomposition not available

 **************************************************************************

 **************************************************************************

                    xk=(  -0.87500,   0.50000,   0.12500  )

     zone border point and non-symmorphic group 
     symmetry decomposition not available

 **************************************************************************

 **************************************************************************

                    xk=(  -0.85000,   0.50000,   0.15000  )

     zone border point and non-symmorphic group 
     symmetry decomposition not available

 **************************************************************************

 **************************************************************************

                    xk=(  -0.82500,   0.50000,   0.17500  )

     zone border point and non-symmorphic group 
     symmetry decomposition not available

 **************************************************************************

 **************************************************************************

                    xk=(  -0.80000,   0.50000,   0.20000  )

     zone border point and non-symmorphic group 
     symmetry decomposition not available

 **************************************************************************

 **************************************************************************

                    xk=(  -0.77500,   0.50000,   0.22500  )

     zone border point and non-symmorphic group 
     symmetry decomposition not available

 **************************************************************************

 **************************************************************************

                    xk=(  -0.75000,   0.50000,   0.25000  )

     zone border point and non-symmorphic group 
     symmetry decomposition not available

 **************************************************************************

 **************************************************************************

                    xk=(  -0.72500,   0.50000,   0.27500  )

     zone border point and non-symmorphic group 
     symmetry decomposition not available

 **************************************************************************

 **************************************************************************

                    xk=(  -0.70000,   0.50000,   0.30000  )

     zone border point and non-symmorphic group 
     symmetry decomposition not available

 **************************************************************************

 **************************************************************************

                    xk=(  -0.67500,   0.50000,   0.32500  )

     zone border point and non-symmorphic group 
     symmetry decomposition not available

 **************************************************************************

 **************************************************************************

                    xk=(  -0.65000,   0.50000,   0.35000  )

     zone border point and non-symmorphic group 
     symmetry decomposition not available

 **************************************************************************

 **************************************************************************

                    xk=(  -0.62500,   0.50000,   0.37500  )

     zone border point and non-symmorphic group 
     symmetry decomposition not available

 **************************************************************************

 **************************************************************************

                    xk=(  -0.60000,   0.50000,   0.40000  )

     zone border point and non-symmorphic group 
     symmetry decomposition not available

 **************************************************************************

 **************************************************************************

                    xk=(  -0.57500,   0.50000,   0.42500  )

     zone border point and non-symmorphic group 
     symmetry decomposition not available

 **************************************************************************

 **************************************************************************

                    xk=(  -0.55000,   0.50000,   0.45000  )

     zone border point and non-symmorphic group 
     symmetry decomposition not available

 **************************************************************************

 **************************************************************************

                    xk=(  -0.52500,   0.50000,   0.47500  )

     zone border point and non-symmorphic group 
     symmetry decomposition not available

 **************************************************************************

 **************************************************************************

                    xk=(  -0.50000,   0.50000,   0.50000  )

     zone border point and non-symmorphic group 
     symmetry decomposition not available

 **************************************************************************

 **************************************************************************

                    xk=(  -0.47500,   0.47500,   0.47500  )

     point group C_3v (3m)  
     there are  3 classes
     the character table:

       E     2C3   3s_v 
A_1    1.00  1.00  1.00
A_2    1.00  1.00 -1.00
E      2.00 -1.00  0.00

     the symmetry operations in each class and the name of the first element:

     E        1
                                                                 
     2C3      2    3
                                                                 
     3s_v     4    5    6
                                                                 

     Band symmetry, C_3v (3m)   point group:

     e(  1 -  1) =     -3.70057  eV     1   --> A_1  L_1       
     e(  2 -  2) =     -0.94731  eV     1   --> A_1  L_1       
     e(  3 -  4) =      4.63201  eV     2   --> E    L_3       

 **************************************************************************

 **************************************************************************

                    xk=(  -0.45000,   0.45000,   0.45000  )

     Band symmetry, C_3v (3m)   point group:

     e(  1 -  1) =     -3.79309  eV     1   --> A_1  L_1       
     e(  2 -  2) =     -0.80974  eV     1   --> A_1  L_1       
     e(  3 -  4) =      4.64525  eV     2   --> E    L_3       

 **************************************************************************

 **************************************************************************

                    xk=(  -0.42500,   0.42500,   0.42500  )

     Band symmetry, C_3v (3m)   point group:

     e(  1 -  1) =     -3.92942  eV     1   --> A_1  L_1       
     e(  2 -  2) =     -0.59843  eV     1   --> A_1  L_1       
     e(  3 -  4) =      4.66730  eV     2   --> E    L_3       

 **************************************************************************

 **************************************************************************

                    xk=(  -0.40000,   0.40000,   0.40000  )

     Band symmetry, C_3v (3m)   point group:

     e(  1 -  1) =     -4.09298  eV     1   --> A_1  L_1       
     e(  2 -  2) =     -0.33020  eV     1   --> A_1  L_1       
     e(  3 -  4) =      4.69808  eV     2   --> E    L_3       

 **************************************************************************

 **************************************************************************

                    xk=(  -0.37500,   0.37500,   0.37500  )

     Band symmetry, C_3v (3m)   point group:

     e(  1 -  1) =     -4.27047  eV     1   --> A_1  L_1       
     e(  2 -  2) =     -0.01854  eV     1   --> A_1  L_1       
     e(  3 -  4) =      4.73753  eV     2   --> E    L_3       

 **************************************************************************

 **************************************************************************

                    xk=(  -0.35000,   0.35000,   0.35000  )

     Band symmetry, C_3v (3m)   point group:

     e(  1 -  1) =     -4.45255  eV     1   --> A_1  L_1       
     e(  2 -  2) =      0.32682  eV     1   --> A_1  L_1       
     e(  3 -  4) =      4.78550  eV     2   --> E    L_3       

 **************************************************************************

 **************************************************************************

                    xk=(  -0.32500,   0.32500,   0.32500  )

     Band symmetry, C_3v (3m)   point group:

     e(  1 -  1) =     -4.63292  eV     1   --> A_1  L_1       
     e(  2 -  2) =      0.69912  eV     1   --> A_1  L_1       
     e(  3 -  4) =      4.84184  eV     2   --> E    L_3       

 **************************************************************************

 **************************************************************************

                    xk=(  -0.30000,   0.30000,   0.30000  )

     Band symmetry, C_3v (3m)   point group:

     e(  1 -  1) =     -4.80734  eV     1   --> A_1  L_1       
     e(  2 -  2) =      1.09354  eV     1   --> A_1  L_1       
     e(  3 -  4) =      4.90627  eV     2   --> E    L_3       

 **************************************************************************

 **************************************************************************

                    xk=(  -0.27500,   0.27500,   0.27500  )

     Band symmetry, C_3v (3m)   point group:

     e(  1 -  1) =     -4.97295  eV     1   --> A_1  L_1       
     e(  2 -  2) =      1.50644  eV     1   --> A_1  L_1       
     e(  3 -  4) =      4.97834  eV     2   --> E    L_3       

 **************************************************************************

 **************************************************************************

                    xk=(  -0.25000,   0.25000,   0.25000  )

     Band symmetry, C_3v (3m)   point group:

     e(  1 -  1) =     -5.12775  eV     1   --> A_1  L_1       
     e(  2 -  2) =      1.93483  eV     1   --> A_1  L_1       
     e(  3 -  4) =      5.05747  eV     2   --> E    L_3       

 **************************************************************************

 **************************************************************************

                    xk=(  -0.22500,   0.22500,   0.22500  )

     Band symmetry, C_3v (3m)   point group:

     e(  1 -  1) =     -5.27038  eV     1   --> A_1  L_1       
     e(  2 -  2) =      2.37596  eV     1   --> A_1  L_1       
     e(  3 -  4) =      5.14271  eV     2   --> E    L_3       

 **************************************************************************

 **************************************************************************

                    xk=(  -0.20000,   0.20000,   0.20000  )

     Band symmetry, C_3v (3m)   point group:

     e(  1 -  1) =     -5.39977  eV     1   --> A_1  L_1       
     e(  2 -  2) =      2.82707  eV     1   --> A_1  L_1       
     e(  3 -  4) =      5.23300  eV     2   --> E    L_3       

 **************************************************************************

 **************************************************************************

                    xk=(  -0.17500,   0.17500,   0.17500  )

     Band symmetry, C_3v (3m)   point group:

     e(  1 -  1) =     -5.51519  eV     1   --> A_1  L_1       
     e(  2 -  2) =      3.28496  eV     1   --> A_1  L_1       
     e(  3 -  4) =      5.32666  eV     2   --> E    L_3       

 **************************************************************************

 **************************************************************************

                    xk=(  -0.15000,   0.15000,   0.15000  )

     Band symmetry, C_3v (3m)   point group:

     e(  1 -  1) =     -5.61608  eV     1   --> A_1  L_1       
     e(  2 -  2) =      3.74549  eV     1   --> A_1  L_1       
     e(  3 -  4) =      5.42145  eV     2   --> E    L_3       

 **************************************************************************

 **************************************************************************

                    xk=(  -0.12500,   0.12500,   0.12500  )

     Band symmetry, C_3v (3m)   point group:

     e(  1 -  1) =     -5.70203  eV     1   --> A_1  L_1       
     e(  2 -  2) =      4.20291  eV     1   --> A_1  L_1       
     e(  3 -  4) =      5.51441  eV     2   --> E    L_3       

 **************************************************************************

 **************************************************************************

                    xk=(  -0.10000,   0.10000,   0.10000  )

     Band symmetry, C_3v (3m)   point group:

     e(  1 -  1) =     -5.77272  eV     1   --> A_1  L_1       
     e(  2 -  2) =      4.64822  eV     1   --> A_1  L_1       
     e(  3 -  4) =      5.60165  eV     2   --> E    L_3       

 **************************************************************************

 **************************************************************************

                    xk=(  -0.07500,   0.07500,   0.07500  )

     Band symmetry, C_3v (3m)   point group:

     e(  1 -  1) =     -5.82793  eV     1   --> A_1  L_1       
     e(  2 -  2) =      5.06621  eV     1   --> A_1  L_1       
     e(  3 -  4) =      5.67838  eV     2   --> E    L_3       

 **************************************************************************

 **************************************************************************

                    xk=(  -0.05000,   0.05000,   0.05000  )

     Band symmetry, C_3v (3m)   point group:

     e(  1 -  1) =     -5.86747  eV     1   --> A_1  L_1       
     e(  2 -  2) =      5.43005  eV     1   --> A_1  L_1       
     e(  3 -  4) =      5.73914  eV     2   --> E    L_3       

 **************************************************************************

 **************************************************************************

                    xk=(  -0.02500,   0.02500,   0.02500  )

     Band symmetry, C_3v (3m)   point group:

     e(  1 -  1) =     -5.89124  eV     1   --> A_1  L_1       
     e(  2 -  2) =      5.69295  eV     1   --> A_1  L_1       
     e(  3 -  4) =      5.77843  eV     2   --> E    L_3       

 **************************************************************************

 **************************************************************************

                    xk=(   0.00000,   0.00000,   0.00000  )

     point group O_h (m-3m) 
     there are 10 classes
     the character table:

       E     8C3   3C2   6C4   6C2'  i     8S6   3s_h  6S4   6s_d 
A_1g   1.00  1.00  1.00  1.00  1.00  1.00  1.00  1.00  1.00  1.00
A_2g   1.00  1.00  1.00 -1.00 -1.00  1.00  1.00  1.00 -1.00 -1.00
E_g    2.00 -1.00  2.00  0.00  0.00  2.00 -1.00  2.00  0.00  0.00
T_1g   3.00  0.00 -1.00  1.00 -1.00  3.00  0.00 -1.00  1.00 -1.00
T_2g   3.00  0.00 -1.00 -1.00  1.00  3.00  0.00 -1.00 -1.00  1.00
A_1u   1.00  1.00  1.00  1.00  1.00 -1.00 -1.00 -1.00 -1.00 -1.00
A_2u   1.00  1.00  1.00 -1.00 -1.00 -1.00 -1.00 -1.00  1.00  1.00
E_u    2.00 -1.00  2.00  0.00  0.00 -2.00  1.00 -2.00  0.00  0.00
T_1u   3.00  0.00 -1.00  1.00 -1.00 -3.00  0.00  1.00 -1.00  1.00
T_2u   3.00  0.00 -1.00 -1.00  1.00 -3.00  0.00  1.00  1.00 -1.00

     the symmetry operations in each class and the name of the first element:

     E        1
                                                                 
     8C3     17   19   20   18   24   21   22   23
                                                                 
     3C2      2    4    3
                                                                 
     6C4      7    8   15   16   12   11
                                                                 
     6C2'     5    6   14   13   10    9
                                                                 
     i       25
                                                                 
     8S6     41   43   44   42   48   45   46   47
                                                                 
     3s_h    26   28   27
                                                                 
     6S4     31   32   39   40   36   35
                                                                 
     6s_d    29   30   38   37   34   33
                                                                 

     Band symmetry, O_h (m-3m)  point group:

     e(  1 -  1) =     -5.89916  eV     1   --> A_1g G_1   G_1+
     e(  2 -  4) =      5.79206  eV     3   --> T_2g G_25' G_5+

 **************************************************************************

     BANDS        :      0.85s CPU      2.09s WALL


   This run was terminated on:  12:15:30  24Apr2025            

=------------------------------------------------------------------------------=
   JOB DONE.
=------------------------------------------------------------------------------=
